
#(C) 2025 by FIZ Karlsruhe - Leibniz Institute for Information Infrastructure.  All rights reserved.
data_603677-ICSD
_database_code_ICSD 603677
_audit_creation_date 2010-02-01
_audit_update_record 2019-02-01
_chemical_name_common 'Platinum(IV) selenide'
_chemical_formula_structural 'Pt Se2'
_chemical_formula_sum 'Pt1 Se2'
_chemical_name_structure_type BaSi2
_exptl_crystal_density_diffrn 9.59
_citation_title

;
Far-infrared and X-ray investigations of the mixed platinum dichalcogenides
PtS2-xSex, PtSe2-xTex, and PtS2-xTex
;
_publ_section_comment 'Cell and Type only determined'
loop_
_citation_id
_citation_journal_full
_citation_year
_citation_journal_volume
_citation_page_first
_citation_page_last
_citation_journal_id_ASTM
primary 'Journal of Solid State Chemistry' 1985 56 26 31 JSSCBI
loop_
_citation_author_citation_id
_citation_author_name
primary 'Kliche, G.'
_cell_length_a 3.727
_cell_length_b 3.727
_cell_length_c 5.082
_cell_angle_alpha 90.
_cell_angle_beta 90.
_cell_angle_gamma 120.
_cell_volume 61.13
_cell_formula_units_Z 1
_space_group_name_H-M_alt 'P -3 m 1'
_space_group_IT_number 164
loop_
_space_group_symop_id
_space_group_symop_operation_xyz
1 'x-y, -y, -z'
2 '-x, -x+y, -z'
3 'y, x, -z'
4 'x-y, x, -z'
5 'y, -x+y, -z'
6 '-x, -y, -z'
7 '-x+y, y, z'
8 'x, x-y, z'
9 '-y, -x, z'
10 '-x+y, -x, z'
11 '-y, x-y, z'
12 'x, y, z'
loop_
_atom_type_symbol
_atom_type_oxidation_number
Pt4+ 4
Se2- -2
loop_
_atom_site_label
_atom_site_type_symbol
_atom_site_symmetry_multiplicity
_atom_site_Wyckoff_symbol
_atom_site_fract_x
_atom_site_fract_y
_atom_site_fract_z
_atom_site_B_iso_or_equiv
_atom_site_occupancy
Pt1 Pt4+ 1 a 0 0 0 . 1.
Se1 Se2- 2 d 0.3333 0.6667 0.255 . 1.
#End of TTdata_603677-ICSD